# vtk DataFile Version 3.0
vtk output
ASCII
DATASET UNSTRUCTURED_GRID
POINTS 13215 float
0 0 0 0 0 0.03846 0 0 0.07692 
0 0 0.10315 0 0 0.11539 0 0 0.15385 
0 0 0.19231 0 0 0.23077 0 0 0.26923 
0 0 0.30769 0 0 0.34615 0 0 0.38461 
0 0 0.39685 0 0 0.42308 0 0 0.46154 
0 0 0.5 0 0 0.53846 0 0 0.57692 
0 0 0.61538 0 0 0.65385 0 0 0.69231 
0 0 0.73077 0 0 0.76923 0 0 0.80769 
0 0 0.84615 0 0 0.88462 0 0 0.92308 
0 0 0.96154 0 0 1 0 0.01355 0.38461 
0 0.02455 0.07692 0 0.03846 0 0 0.03846 0.03846 
0 0.03846 0.06254 0 0.03846 0.07692 0 0.03846 0.11539 
0 0.03846 0.15385 0 0.03846 0.19231 0 0.03846 0.23077 
0 0.03846 0.26923 0 0.03846 0.30769 0 0.03846 0.34615 
0 0.03846 0.36264 0 0.03846 0.38461 0 0.03846 0.42308 
0 0.03846 0.46154 0 0.03846 0.5 0 0.03846 0.53846 
0 0.03846 0.57692 0 0.03846 0.61538 0 0.03846 0.65385 
0 0.03846 0.69231 0 0.03846 0.73077 0 0.03846 0.76923 
0 0.03846 0.80769 0 0.03846 0.84615 0 0.03846 0.88462 
0 0.03846 0.92308 0 0.03846 0.96154 0 0.03846 1 
0 0.06101 0.03846 0 0.0646 0.34615 0 0.07692 0 
0 0.07692 0.02304 0 0.07692 0.03846 0 0.07692 0.07692 
0 0.07692 0.11539 0 0.07692 0.15385 0 0.07692 0.19231 
0 0.07692 0.23077 0 0.07692 0.26923 0 0.07692 0.30769 
0 0.07692 0.33869 0 0.07692 0.34615 0 0.07692 0.38461 
0 0.07692 0.42308 0 0.07692 0.46154 0 0.07692 0.5 
0 0.07692 0.53846 0 0.07692 0.57692 0 0.07692 0.61538 
0 0.07692 0.65385 0 0.07692 0.69231 0 0.07692 0.73077 
0 0.07692 0.76923 0 0.07692 0.80769 0 0.07692 0.84615 
0 0.07692 0.88462 0 0.07692 0.92308 0 0.07692 0.96154 
0 0.07692 1 0 0.10315 0 0 0.10315 1 
0 0.11539 0 0 0.11539 0.03846 0 0.11539 0.07692 
0 0.11539 0.11539 0 0.11539 0.15385 0 0.11539 0.19231 
0 0.11539 0.23077 0 0.11539 0.26923 0 0.11539 0.30769 
0 0.11539 0.32284 0 0.11539 0.34615 0 0.11539 0.38461 
0 0.11539 0.42308 0 0.11539 0.46154 0 0.11539 0.5 
0 0.11539 0.53846 0 0.11539 0.57692 0 0.11539 0.61538 
0 0.11539 0.65385 0 0.11539 0.69231 0 0.11539 0.73077 
0 0.11539 0.76923 0 0.11539 0.80769 0 0.11539 0.84615 
0 0.11539 0.88462 0 0.11539 0.92308 0 0.11539 0.96154 
0 0.11539 0.99061 0 0.11539 1 0 0.15385 0 
0 0.15385 0.03846 0 0.15385 0.07692 0 0.15385 0.11539 
0 0.15385 0.15385 0 0.15385 0.19231 0 0.15385 0.23077 
0 0.15385 0.26923 0 0.15385 0.30769 0 0.15385 0.31346 
0 0.15385 0.34615 0 0.15385 0.38461 0 0.15385 0.42308 
0 0.15385 0.46154 0 0.15385 0.5 0 0.15385 0.53846 
0 0.15385 0.57692 0 0.15385 0.61538 0 0.15385 0.65385 
0 0.15385 0.69231 0 0.15385 0.73077 0 0.15385 0.76923 
0 0.15385 0.80769 0 0.15385 0.84615 0 0.15385 0.88462 
0 0.15385 0.92308 0 0.15385 0.96154 0 0.15385 0.96742 
0 0.15385 1 0 0.16808 0.96154 0 0.19231 0 
0 0.19231 0.03846 0 0.19231 0.07692 0 0.19231 0.11539 
0 0.19231 0.15385 0 0.19231 0.19231 0 0.19231 0.23077 
0 0.19231 0.26923 0 0.19231 0.30769 0 0.19231 0.30812 
0 0.19231 0.34615 0 0.19231 0.38461 0 0.19231 0.42308 
0 0.19231 0.46154 0 0.19231 0.5 0 0.19231 0.53846 
0 0.19231 0.57692 0 0.19231 0.61538 0 0.19231 0.65385 
0 0.19231 0.69231 0 0.19231 0.73077 0 0.19231 0.76923 
0 0.19231 0.80769 0 0.19231 0.84615 0 0.19231 0.88462 
0 0.19231 0.92308 0 0.19231 0.95291 0 0.19231 0.96154 
0 0.19231 1 0 0.1988 0.30769 0 0.23077 0 
0 0.23077 0.03846 0 0.23077 0.07692 0 0.23077 0.11539 
0 0.23077 0.15385 0 0.23077 0.19231 0 0.23077 0.23077 
0 0.23077 0.26923 0 0.23077 0.30544 0 0.23077 0.30769 
0 0.23077 0.34615 0 0.23077 0.38461 0 0.23077 0.42308 
0 0.23077 0.46154 0 0.23077 0.5 0 0.23077 0.53846 
0 0.23077 0.57692 0 0.23077 0.61538 0 0.23077 0.65385 
0 0.23077 0.69231 0 0.23077 0.73077 0 0.23077 0.76923 
0 0.23077 0.80769 0 0.23077 0.84615 0 0.23077 0.88462 
0 0.23077 0.92308 0 0.23077 0.9461 0 0.23077 0.96154 
0 0.23077 1 0 0.26923 0 0 0.26923 0.03846 
0 0.26923 0.07692 0 0.26923 0.11539 0 0.26923 0.15385 
0 0.26923 0.19231 0 0.26923 0.23077 0 0.26923 0.26923 
0 0.26923 0.30544 0 0.26923 0.30769 0 0.26923 0.34615 
0 0.26923 0.38461 0 0.26923 0.42308 0 0.26923 0.46154 
0 0.26923 0.5 0 0.26923 0.53846 0 0.26923 0.57692 
0 0.26923 0.61538 0 0.26923 0.65385 0 0.26923 0.69231 
0 0.26923 0.73077 0 0.26923 0.76923 0 0.26923 0.80769 
0 0.26923 0.84615 0 0.26923 0.88462 0 0.26923 0.92308 
0 0.26923 0.9461 0 0.26923 0.96154 0 0.26923 1 
0 0.3012 0.30769 0 0.30769 0 0 0.30769 0.03846 
0 0.30769 0.07692 0 0.30769 0.11539 0 0.30769 0.15385 
0 0.30769 0.19231 0 0.30769 0.23077 0 0.30769 0.26923 
0 0.30769 0.30769 0 0.30769 0.30812 0 0.30769 0.34615 
0 0.30769 0.38461 0 0.30769 0.42308 0 0.30769 0.46154 
0 0.30769 0.5 0 0.30769 0.53846 0 0.30769 0.57692 
0 0.30769 0.61538 0 0.30769 0.65385 0 0.30769 0.69231 
0 0.30769 0.73077 0 0.30769 0.76923 0 0.30769 0.80769 
0 0.30769 0.84615 0 0.30769 0.88462 0 0.30769 0.92308 
0 0.30769 0.95291 0 0.30769 0.96154 0 0.30769 1 
0 0.33192 0.96154 0 0.34615 0 0 0.34615 0.03846 
0 0.34615 0.07692 0 0.34615 0.11539 0 0.34615 0.15385 
0 0.34615 0.19231 0 0.34615 0.23077 0 0.34615 0.26923 
0 0.34615 0.30769 0 0.34615 0.31346 0 0.34615 0.34615 
0 0.34615 0.38461 0 0.34615 0.42308 0 0.34615 0.46154 
0 0.34615 0.5 0 0.34615 0.53846 0 0.34615 0.57692 
0 0.34615 0.61538 0 0.34615 0.65385 0 0.34615 0.69231 
0 0.34615 0.73077 0 0.34615 0.76923 0 0.34615 0.80769 
0 0.34615 0.84615 0 0.34615 0.88462 0 0.34615 0.92308 
0 0.34615 0.96154 0 0.34615 0.96742 0 0.34615 1 
0 0.38461 0 0 0.38461 0.03846 0 0.38461 0.07692 
0 0.38461 0.11539 0 0.38461 0.15385 0 0.38461 0.19231 
0 0.38461 0.23077 0 0.38461 0.26923 0 0.38461 0.30769 
0 0.38461 0.32284 0 0.38461 0.34615 0 0.38461 0.38461 
0 0.38461 0.42308 0 0.38461 0.46154 0 0.38461 0.5 
0 0.38461 0.53846 0 0.38461 0.57692 0 0.38461 0.61538 
0 0.38461 0.65385 0 0.38461 0.69231 0 0.38461 0.73077 
0 0.38461 0.76923 0 0.38461 0.80769 0 0.38461 0.84615 
0 0.38461 0.88462 0 0.38461 0.92308 0 0.38461 0.96154 
0 0.38461 0.99061 0 0.38461 1 0 0.39685 0 
0 0.39685 1 0 0.42308 0 0 0.42308 0.02304 
0 0.42308 0.03846 0 0.42308 0.07692 0 0.42308 0.11539 
0 0.42308 0.15385 0 0.42308 0.19231 0 0.42308 0.23077 
0 0.42308 0.26923 0 0.42308 0.30769 0 0.42308 0.33869 
0 0.42308 0.34615 0 0.42308 0.38461 0 0.42308 0.42308 
0 0.42308 0.46154 0 0.42308 0.5 0 0.42308 0.53846 
0 0.42308 0.57692 0 0.42308 0.61538 0 0.42308 0.65385 
0 0.42308 0.69231 0 0.42308 0.73077 0 0.42308 0.76923 
0 0.42308 0.80769 0 0.42308 0.84615 0 0.42308 0.88462 
0 0.42308 0.92308 0 0.42308 0.96154 0 0.42308 1 
0 0.43539 0.34615 0 0.43899 0.03846 0 0.46154 0 
0 0.46154 0.03846 0 0.46154 0.06254 0 0.46154 0.07692 
0 0.46154 0.11539 0 0.46154 0.15385 0 0.46154 0.19231 
0 0.46154 0.23077 0 0.46154 0.26923 0 0.46154 0.30769 
0 0.46154 0.34615 0 0.46154 0.36264 0 0.46154 0.38461 
0 0.46154 0.42308 0 0.46154 0.46154 0 0.46154 0.5 
0 0.46154 0.53846 0 0.46154 0.57692 0 0.46154 0.61538 
0 0.46154 0.65385 0 0.46154 0.69231 0 0.46154 0.73077 
0 0.46154 0.76923 0 0.46154 0.80769 0 0.46154 0.84615 
0 0.46154 0.88462 0 0.46154 0.92308 0 0.46154 0.96154 
0 0.46154 1 0 0.47545 0.07692 0 0.48645 0.38461 
0 0.5 0 0 0.5 0.03846 0 0.5 0.07692 
0 0.5 0.10315 0 0.5 0.11539 0 0.5 0.15385 
0 0.5 0.19231 0 0.5 0.23077 0 0.5 0.26923 
0 0.5 0.30769 0 0.5 0.34615 0 0.5 0.38461 
0 0.5 0.39685 0 0.5 0.42308 0 0.5 0.46154 
0 0.5 0.5 0 0.5 0.53846 0 0.5 0.57692 
0 0.5 0.61538 0 0.5 0.65385 0 0.5 0.69231 
0 0.5 0.73077 0 0.5 0.76923 0 0.5 0.80769 
0 0.5 0.84615 0 0.5 0.88462 0 0.5 0.92308 
0 0.5 0.96154 0 0.5 1 0 0.51355 0.11539 
0 0.52455 0.42308 0 0.53846 0 0 0.53846 0.03846 
0 0.53846 0.07692 0 0.53846 0.11539 0 0.53846 0.13736 
0 0.53846 0.15385 0 0.53846 0.19231 0 0.53846 0.23077 
0 0.53846 0.26923 0 0.53846 0.30769 0 0.53846 0.34615 
0 0.53846 0.38461 0 0.53846 0.42308 0 0.53846 0.43746 
0 0.53846 0.46154 0 0.53846 0.5 0 0.53846 0.53846 
0 0.53846 0.57692 0 0.53846 0.61538 0 0.53846 0.65385 
0 0.53846 0.69231 0 0.53846 0.73077 0 0.53846 0.76923 
0 0.53846 0.80769 0 0.53846 0.84615 0 0.53846 0.88462 
0 0.53846 0.92308 0 0.53846 0.96154 0 0.53846 1 
0 0.56101 0.46154 0 0.56461 0.15385 0 0.57692 0 
0 0.57692 0.03846 0 0.57692 0.07692 0 0.57692 0.11539 
0 0.57692 0.15385 0 0.57692 0.16131 0 0.57692 0.19231 
0 0.57692 0.23077 0 0.57692 0.26923 0 0.57692 0.30769 
0 0.57692 0.34615 0 0.57692 0.38461 0 0.57692 0.42308 
0 0.57692 0.46154 0 0.57692 0.47696 0 0.57692 0.5 
0 0.57692 0.53846 0 0.57692 0.57692 0 0.57692 0.61538 
0 0.57692 0.65385 0 0.57692 0.69231 0 0.57692 0.73077 
0 0.57692 0.76923 0 0.57692 0.80769 0 0.57692 0.84615 
0 0.57692 0.88462 0 0.57692 0.92308 0 0.57692 0.96154 
0 0.57692 1 0 0.60315 0.5 0 0.61538 0 
0 0.61538 0.03846 0 0.61538 0.07692 0 0.61538 0.11539 
0 0.61538 0.15385 0 0.61538 0.17716 0 0.61538 0.19231 
0 0.61538 0.23077 0 0.61538 0.26923 0 0.61538 0.30769 
0 0.61538 0.34615 0 0.61538 0.38461 0 0.61538 0.42308 
0 0.61538 0.46154 0 0.61538 0.5 0 0.61538 0.50939 
0 0.61538 0.53846 0 0.61538 0.57692 0 0.61538 0.61538 
0 0.61538 0.65385 0 0.61538 0.69231 0 0.61538 0.73077 
0 0.61538 0.76923 0 0.61538 0.80769 0 0.61538 0.84615 
0 0.61538 0.88462 0 0.61538 0.92308 0 0.61538 0.96154 
0 0.61538 1 0 0.65385 0 0 0.65385 0.03846 
0 0.65385 0.07692 0 0.65385 0.11539 0 0.65385 0.15385 
0 0.65385 0.18654 0 0.65385 0.19231 0 0.65385 0.23077 
0 0.65385 0.26923 0 0.65385 0.30769 0 0.65385 0.34615 
0 0.65385 0.38461 0 0.65385 0.42308 0 0.65385 0.46154 
0 0.65385 0.5 0 0.65385 0.53258 0 0.65385 0.53846 
0 0.65385 0.57692 0 0.65385 0.61538 0 0.65385 0.65385 
0 0.65385 0.69231 0 0.65385 0.73077 0 0.65385 0.76923 
0 0.65385 0.80769 0 0.65385 0.84615 0 0.65385 0.88462 
0 0.65385 0.92308 0 0.65385 0.96154 0 0.65385 1 
0 0.66808 0.53846 0 0.69231 0 0 0.69231 0.03846 
0 0.69231 0.07692 0 0.69231 0.11539 0 0.69231 0.15385 
0 0.69231 0.19188 0 0.69231 0.19231 0 0.69231 0.23077 
0 0.69231 0.26923 0 0.69231 0.30769 0 0.69231 0.34615 
0 0.69231 0.38461 0 0.69231 0.42308 0 0.69231 0.46154 
0 0.69231 0.5 0 0.69231 0.53846 0 0.69231 0.54709 
0 0.69231 0.57692 0 0.69231 0.61538 0 0.69231 0.65385 
0 0.69231 0.69231 0 0.69231 0.73077 0 0.69231 0.76923 
0 0.69231 0.80769 0 0.69231 0.84615 0 0.69231 0.88462 
0 0.69231 0.92308 0 0.69231 0.96154 0 0.69231 1 
[...]
CELL_DATA 69929
FIELD FieldData 1
subdomainid 1 69929 int
12415 7498 4755 4395 8672 9177 1089 9333 4122 
1510 431 1814 5865 5047 833 4896 1310 3049 
5264 3072 3215 2516 2958 4379 9473 3220 4927 
1514 2266 5945 63 42 8590 7991 4526 3774 
5040 4542 10789 11164 9113 2374 7483 736 6387 
4119 3201 852 1082 7390 8786 11767 7983 6525 
6328 835 7569 3452 1245 7404 4464 2026 8369 
8154 1978 1258 793 2409 9160 5056 1765 2883 
3114 8525 2055 8816 8249 6767 3906 7922 2103 
2 8848 9826 2752 211 4296 2160 6248 8827 
6083 7854 1342 2742 1154 7562 190 7257 815 
4405 3495 4406 10014 6159 2442 1574 862 5025 
7882 6473 1814 3021 3324 1995 2624 1981 762 
1469 2621 1786 7787 6894 159 2830 5915 2363 
4819 2625 6006 6397 11510 5997 9502 5789 3153 
5726 1987 730 4981 5930 2667 4129 6620 9424 
8238 2512 2589 37 8423 1299 3303 8217 2141 
4755 1922 914 1787 11811 1132 890 11740 2901 
3629 3753 6311 8825 3402 2938 7848 7957 6621 
5649 6402 6641 4902 8169 8148 3669 8899 4736 
7998 3307 3392 7770 6594 11104 1093 814 843 
8323 9047 894 5799 8089 6472 11355 643 8606 
5699 2412 3577 492 12601 2 7226 246 2258 
36 867 1967 2747 64 837 7013 11542 10490 
6925 10243 7340 11522 3393 5889 10293 1232 1123 
5797 9 1498 8552 5220 4796 10813 6254 1566 
3689 7742 1024 871 891 7660 1961 1570 2663 
7443 1469 3393 3343 4018 8902 3876 2220 4778 
1515 4809 1893 5792 1052 2279 3389 7628 2713 
7692 4916 730 3868 340 186 1563 4112 2472 
2443 4445 5465 4515 2926 5670 7079 3016 9285 
5284 400 2933 2595 6738 8569 1873 2750 2681 
1057 9273 4797 10869 10580 1685 2519 5726 3393 
8590 7013 1832 7700 1739 8276 1071 3362 8345 
587 947 220 10710 2699 37 8510 4138 1441 
1750 8362 1823 1468 1606 3054 1056 8777 7776 
366 2493 9190 1566 4839 8403 6736 10112 498 
8763 8726 6459 7220 9377 9177 1499 3901 6089 
7381 2649 5445 9496 522 833 5349 5005 521 
1023 9463 1070 522 41 1092 585 1023 2272 
1875 1205 220 1064 7379 4794 2375 2466 1350 
7443 7249 949 3309 4043 8145 2783 3872 8271 
5957 247 4895 9489 5736 9721 763 2638 8249 
2595 5998 4085 3735 6344 7424 8121 499 522 
7640 2317 2678 836 1303 3929 11767 1740 5462 
2153 8642 1684 8686 7361 5479 2252 2603 3050 
1464 8852 7830 9201 2743 2370 5851 9061 125 
8959 761 124 1911 2364 1921 1006 6761 552 
2339 3690 7135 544 3797 4138 9179 7776 210 
838 12639 3935 7364 7625 4323 279 1464 6827 
1021 4907 7543 7472 2873 2740 3410 2234 929 
6388 2423 611 7613 794 2376 6239 2200 3217 
3340 4178 3434 1923 11561 8638 369 2855 10309 
1503 2240 10294 9435 705 1361 5923 7956 5815 
341 5369 1432 820 4039 1099 941 8402 96 
1981 467 6020 2061 7814 5514 65 2801 906 
7106 5342 1506 965 964 6215 3575 4596 4587 
10878 4327 7824 953 854 2008 373 8354 5888 
981 943 1990 8628 1873 9414 2835 8580 7800 
1292 5796 8048 8416 1007 5358 3664 11441 4446 
3564 1630 1979 3185 7772 7337 3104 8584 6218 
1981 5251 3423 4163 1386 4253 1344 9823 4968 
8547 3135 928 2799 6169 3109 3886 7956 7935 
4908 7503 765 4816 2015 4584 4781 8927 4578 
559 7682 7258 1947 5669 2925 7516 8341 797 
4926 1876 7994 5665 4614 587 7741 10893 8078 
1592 6495 5503 4017 1945 1893 4515 2392 8554 
3881 12459 5352 8160 2958 5438 7746 10421 10555 
11671 8972 1372 11564 4303 1938 1539 2179 7903 
7358 1916 3623 8746 3214 7311 3294 9003 5661 
3307 8616 7483 4904 8088 8672 7616 7839 2598 
98 2035 6619 8652 6085 8537 1129 8773 2150 
4394 3011 2398 2598 4592 3265 983 5499 2571 
8151 7357 5190 1374 308 3647 8179 5954 6109 
6463 6365 8408 9333 2945 1991 2592 9772 4795 
8362 3305 2186 3225 5131 8645 972 156 2522 
2716 8276 2415 3810 644 5497 8810 1377 5122 
1278 155 3660 670 7813 4033 5055 4123 2402 
2460 2239 1544 1322 7557 926 5789 11878 5649 
788 1249 3919 3136 1431 1377 6852 1608 3900 
2141 3363 2790 5744 931 3022 7727 4334 10304 
2981 6707 1102 8922 1498 9032 7529 8811 5900 
4340 4754 179 1787 2275 9963 1288 7658 1772 
3732 5852 10401 916 9473 1162 1755 4029 7814 
2787 7934 1648 4319 10701 2862 1827 4543 2221 
1393 835 1294 4163 1162 3113 1147 1801 8028 
2012 1774 1343 8879 4353 5785 5198 1990 4364 
9049 1720 1560 3879 4783 2940 8497 2693 8128 
1542 2014 1558 1296 1456 4782 7531 1509 2412 
3070 2711 2185 2555 245 1564 3405 6555 5953 
8085 5336 2983 6372 12317 3378 1203 4468 4672 
4001 1152 4447 3315 9042 3660 8678 8830 8411 
3418 1516 2238 7734 6337 7396 820 8652 8787 
8645 9348 2783 2742 8637 7922 1652 5368 4323 
7443 2971 2947 1317 7434 4978 5358 3334 2716 
2716 9247 5521 7169 7443 1191 8806 1878 1786 
7688 9247 7613 2019 10309 8866 5904 9461 930 
767 3967 4993 6730 3503 4788 6893 8329 5005 
9418 9885 2485 2702 1173 4529 5113 1476 5583 
4995 2790 6499 123 5281 7339 3548 5135 2251 
3106 2979 8 2868 903 2262 7379 9499 10804 
7481 1689 5424 5184 3809 1169 4756 897 3901 
3769 8661 1239 1320 4 11065 5894 2402 3536 
7483 4367 10469 11090 5963 3611 5228 7981 4783 
4130 5589 10580 5338 7366 1300 3622 5868 6895 
8929 5473 2722 8201 4113 8088 3495 7465 4807 
8651 7515 5368 5212 11654 6293 9028 525 7984 
67 5469 2457 2931 7736 8212 5652 8561 6014 
5030 1936 10436 7663 2628 3664 2738 7960 4927 
3174 3494 5117 5067 10761 7392 2954 9183 2416 
7964 7443 4027 7452 3559 4602 588 8020 2202 
2032 645 8960 2349 2704 4745 3435 5238 6826 
6704 7422 4443 5222 4669 2461 10053 8130 7651 
612 4189 5708 6731 7870 6070 2501 4251 4978 
1686 7611 5903 3231 978 616 4920 7378 6479 
5575 2801 5418 8951 7306 7441 4739 7960 6762 
5424 8701 7723 2283 6088 9582 7581 7687 3906 
4970 4539 5882 7602 5874 2923 8365 6317 3780 
6700 5641 8195 3225 8103 8825 3791 6317 7687 
3019 3391 2946 8220 3049 8517 3559 7681 6478 
3790 5030 5696 3340 4547 3767 6219 2584 9324 
8875 8120 8112 7219 7108 7424 42 9866 5874 
38 4669 9109 4338 7552 3932 2073 5240 6107 
3638 2208 9307 8115 5052 5594 2104 9896 3073 
3545 6929 961 42 4532 8134 184 3013 2257 
7465 4797 7772 5687 4916 7655 10455 5474 5190 
3699 9632 3736 6800 8154 1863 3701 5030 3685 
7782 7548 4681 10357 10748 6353 7964 5595 5497 
4536 9536 1124 3215 5022 3542 5945 7357 8048 
8442 851 4674 9148 7465 1837 10777 8730 2738 
5190 337 5720 1298 4041 3264 2236 6371 6481 
4384 6958 908 6128 6677 5706 2876 5024 4760 
4675 3249 4847 5040 7591 856 5073 10705 6393 
3452 1292 1082 2666 1762 7315 4552 5490 4614 
8872 969 7736 1101 3889 5591 4549 2075 9347 
3172 1926 2876 4253 4454 11160 1672 1499 12800 
11096 8319 9713 6352 4545 8023 3007 2199 4370 
6500 5422 7135 11100 8638 2262 8382 4398 9564 
2497 8862 11638 5463 5795 4044 5019 1299 7434 
11928 8617 10333 6242 1369 6255 6652 6145 8336 
5902 1227 4975 2734 4306 2046 8889 5046 2812 
6407 10359 4463 1098 12459 987 6111 3332 8615 
10202 1061 6110 2460 6792 2968 1745 6167 2269 
127 4011 10869 1098 8032 7420 5351 4253 7190 
5226 765 7367 8557 4476 2566 5061 3175 5904 
7742 10280 2063 8234 7311 7628 11768 2169 4191 
3611 4389 5429 3005 1061 2740 8226 5236 7653 
6953 8769 6239 7309 7503 2758 7520 5883 4301 
5708 11264 8434 4167 3624 4537 8455 7170 5025 
3455 10789 4025 5908 8393 2407 7454 6406 9766 
8042 1728 6249 7329 7452 6161 7190 2830 1024 
5026 1288 1716 6456 7280 6422 2555 2720 5810 
8672 4917 6144 6412 2475 7101 5019 7589 6466 
8701 3098 11057 8004 1575 7592 8238 11149 2914 
3503 4807 6859 7626 7709 11652 6326 7653 5950 
6959 7021 8124 209 6005 9930 7424 5525 8234 
1905 2485 4520 10702 1028 2882 1738 992 10327 
935 7960 7808 5002 673 792 7552 6375 1760 
5001 3261 5816 3504 8393 13168 6498 2510 3536 
3235 5882 7785 3408 7640 1106 5925 6342 1784 
1871 11811 249 11561 9663 10774 5482 8421 6060 
9115 2500 1581 4993 3335 5227 6116 2697 276 
7481 4692 7323 4573 7441 8334 5219 2492 7080 
6082 2244 1732 1804 6448 5241 1569 6794 9602 
4731 8509 6352 8873 8078 4140 5660 5027 6107 
6209 4034 5461 5744 7463 10062 1970 7339 7854 
8936 10047 4889 2161 2416 5489 7994 3407 8330 
8848 970 11201 1758 1352 2936 8050 9100 955 
2555 5132 2548 1736 6112 3183 3393 3635 1364 
2236 2275 2360 8712 3776 2644 7675 7770 2969 
3364 6401 2925 7934 3546 2201 3545 4742 4104 
1892 3540 4359 3868 4102 4518 3809 3178 6088 
3177 4602 8434 6958 4771 4297 3888 5851 8529 
915 3620 2626 4124 1810 1609 219 2224 4995 
8848 8706 7349 9235 10731 1148 1007 6246 2790 
5877 2859 2104 6310 6265 990 5649 7651 9848 
6307 1531 6499 4774 1231 6623 6533 6458 1 
6738 6248 6349 5885 1365 3036 4914 10373 4312 
6324 8296 6324 9331 4969 6125 9306 1728 3476 
4045 3599 7517 4659 7503 9197 1517 4330 8437 
6328 2598 2151 6339 3685 4809 6960 4349 858 
858 1 1068 858 8434 860 8293 2 1 
890 34 9059 906 890 33 1065 2219 890 
11419 63 8312 839 890 7881 7998 8394 3 
864 3172 10245 5906 33 7420 9042 860 4592 
123 906 1446 5467 8334 2 7881 7833 61 
1749 2826 701 9721 7667 7611 7163 6955 9270 
1654 7653 4615 215 5031 1311 8180 888 4249 
2807 1132 1073 1068 1095 890 5925 2059 158 
1095 3614 1523 2025 1342 1356 1759 2420 1165 
3774 6862 1563 1759 1793 3381 1470 5184 9195 
7337 2496 8245 4888 5222 2446 4523 1979 6384 
3673 1835 764 124 7017 4570 42 9482 1371 
764 1211 919 5669 910 154 784 1967 7396 
2674 4126 894 9300 6890 4539 4522 924 4375 
7671 940 9107 8615 280 5642 2481 5191 8589 
3376 10766 4047 8093 372 2483 1451 4578 2735 
6364 4108 4044 5502 5590 7467 4236 9725 4666 
9550 1161 2672 3392 5071 1441 8225 3754 10250 
2960 1141 2448 8730 3469 2449 4464 11740 2697 
3381 8 5942 646 10454 8862 2972 10945 10826 
3866 2146 3341 4169 3256 4196 1108 9268 1922 
37 1471 274 36 36 4839 3219 3022 7616 
1343 6794 4579 4968 9151 1304 7224 12500 8 
2782 8794 2588 867 10 1770 870 11 42 
869 11673 1720 5643 1556 1323 7779 7808 8085 
12087 3169 6173 1914 6025 1173 3044 7479 8701 
1143 131 3293 7592 907 43 66 7367 161 
7390 7422 2938 72 935 220 7746 9501 7703 
3570 5575 7540 1720 7337 2237 162 4296 8288 
8611 5019 8040 7425 8088 2138 250 7814 2033 
8286 7775 40 220 7766 4592 330 7106 9107 
1150 6222 161 4138 161 161 8419 4847 914 
12918 7323 13089 8212 6229 2023 8452 1106 5462 
5067 1469 856 7166 9439 1129 7422 2273 2479 
8179 2163 5345 6468 3918 7503 3867 13016 820 
2435 5185 68 9947 3426 5684 3690 7555 2067 
901 1988 5264 3690 1136 11180 7844 8768 13 
4783 9053 1178 617 870 870 42 648 988 
3942 2018 870 5015 7249 3733 243 7875 897 
9332 2570 5793 12721 186 7830 870 5786 3490 
7481 1790 8120 8929 7802 1558 2615 2819 8437 
2077 3453 1320 2074 1339 1347 2267 8382 616 
9910 1567 1320 7605 617 1798 1580 1324 4675 
4105 4988 870 1322 1321 1123 1084 912 1567 
7379 11024 1345 2736 1559 2693 7375 2782 1521 
2964 403 2012 4255 3526 1567 2634 1344 4343 
2012 1561 2031 10415 7708 2242 7508 1337 4914 
2418 8085 5130 1511 5021 1659 8199 1787 2454 
701 8529 865 2224 1798 2213 1557 4554 7510 
2009 3500 8559 5134 8931 1557 9159 5014 1564 
1787 2934 1351 1345 4922 1669 7826 7531 8705 
7320 2031 1567 1322 5461 1580 2956 95 996 
5206 5428 12684 5071 4160 7934 7109 4386 7711 
3304 161 2344 2418 2027 6592 2433 10225 1749 
1591 1800 9896 1102 4255 3084 2433 2409 5050 
2246 2050 2711 1811 1987 2009 4447 7013 5135 
925 2436 2228 7623 8452 10653 4140 4576 1357 
1288 558 4994 2220 5668 1959 8584 3214 1251 
7329 3491 2245 10355 2010 8151 2009 10527 2216 
2736 2410 8988 2202 6316 3879 12618 2483 9179 
2408 2220 2050 7390 8108 1578 9109 10039 2143 
2453 7791 2009 2435 8238 9041 10205 3490 2225 
6291 2472 2009 2479 2452 2518 2420 2220 558 
4547 2476 3131 2010 2472 2870 5962 8408 2222 
5739 2220 7463 2456 1369 2473 6159 2220 2221 
8220 5039 2014 2502 7943 7634 7779 2180 2394 
2010 12000 12283 2196 1410 12128 5481 2241 7392 
7734 7309 5144 3047 7014 9003 4257 1893 1609 
8936 2929 2457 3375 2221 2929 5921 5961 2461 
2717 2710 2723 2027 2027 2418 2412 2459 2221 
2033 7364 2224 2027 2458 2224 2457 7708 9463 
2224 2473 2483 9392 2241 1659 3910 7663 2981 
2412 2479 2473 2222 2475 3302 2221 2222 2648 
8085 2246 2410 9564 2455 2456 2677 2474 3910 
8303 3325 4918 2475 4319 2475 2476 9420 1077 
9237 7956 5562 2965 4039 5500 4567 5038 7682 
4375 8234 996 8887 1137 10490 2873 3166 2056 
3645 5443 3784 4455 3079 12247 8393 8788 7050 
9499 10459 1573 7498 4345 6710 4848 5020 6645 
863 862 3103 3382 3382 6884 2199 2050 12446 
5743 5597 2932 3108 6894 1179 9654 3149 3393 
4247 3159 1344 8393 3729 3149 3384 1723 4254 
3321 7078 2930 7602 3149 2930 3382 9179 8806 
2016 8883 3153 3611 2709 1565 1998 3382 2939 
3344 8121 8018 3389 5071 8169 3563 5286 2847 
2747 4832 6987 2682 5806 3160 6863 9961 700 
5436 2981 5874 9227 2760 3153 10839 2446 3099 
2025 9384 6865 2709 11102 4550 8041 10994 7628 
10721 2503 4971 2862 701 2444 2444 2674 1725 
2256 3919 9080 5000 5363 8894 7481 2485 1533 
5877 8115 5239 7613 2075 1523 1733 5669 3190 
6090 2814 4319 2580 8674 1926 11732 67 1251 
7333 6013 8592 2490 6344 9041 2887 4531 7710 
5429 587 5013 4122 8052 2435 10333 11654 7529 
2667 863 37 2436 2255 5364 8103 2672 4569 
6119 2447 1952 1070 8340 5578 6455 2712 7829 
7481 9266 3233 2655 6133 5026 11641 2886 8284 
7638 7543 9430 2674 9742 1344 1522 2965 8122 
9779 6361 1502 2498 10149 2663 7191 3893 184 
1231 3301 5962 9439 3180 2637 11572 2815 3685 
8421 5521 7562 7421 3300 3310 5887 5219 5045 
4308 3182 8681 5802 6231 2416 2248 3834 2484 
5350 6863 9532 7394 3046 8360 7766 10450 5190 
5239 2703 2951 3950 7922 4524 7487 6162 2208 
4127 8403 101 2005 5951 2386 7787 524 7808 
9311 5270 8872 3164 3140 3312 4847 9177 8562 
3413 1984 2108 3177 2072 731 1024 672 2486 
7732 1692 8899 2725 1086 2577 3858 2467 5240 
2963 7852 12583 5489 2962 3407 1173 1074 8702 
1347 4898 3104 1254 3300 3286 3173 2216 3407 
3403 2944 1989 3173 8115 671 3568 4109 8134 
8318 3412 5881 3110 2886 5923 7589 3407 2949 
10968 10035 6924 3405 5035 2747 5220 3417 5888 
9789 7520 8529 4926 4661 3183 6764 4303 4460 
8590 3868 4519 8335 3404 5441 8900 1451 1934 
3108 3408 3870 3394 3403 3625 3868 669 3183 
2526 3404 3413 3183 2963 3182 4998 6957 2170 
4743 8195 2961 6014 2756 6116 2963 3182 1496 
3412 3407 9273 3956 3403 8749 9279 3625 3181 
3408 3407 3416 2968 1473 3177 3183 2967 2065 
7687 2756 10283 11036 8965 5039 9303 2447 67 
1929 5350 9567 6830 1029 4251 5708 7998 3021 
2289 4512 2049 2207 2513 2968 865 3261 7650 
2524 1842 2964 2963 2967 2963 2969 2289 2524 
2752 2513 2520 2753 2513 6829 4907 7748 7306 
6165 6256 1963 1974 2021 1392 7663 3893 7529 
2514 1834 6620 7311 8517 5130 7624 10301 5288 
12295 9053 6488 2077 7508 3789 1967 8353 2122 
1065 2489 6397 5521 128 8344 8449 7756 9098 
2373 6256 3540 3864 3540 3561 1502 2780 8593 
7311 2441 9546 7311 2289 949 1590 8725 371 
3526 8246 373 6365 1948 5471 126 12406 5809 
5336 2004 1426 5943 10597 7682 1697 4584 9477 
2570 279 8942 3526 2855 5673 10425 6958 8802 
2010 3841 8382 1368 11655 280 249 8928 1603 
925 7708 191 191 2102 2208 1559 340 402 
340 920 7508 10014 2048 6356 6485 9177 10381 
3185 6233 8303 941 820 154 4664 9672 5062 
7770 1929 12601 308 8366 1097 1052 5679 1976 
8455 7931 6369 9739 372 342 1065 2562 3073 
6095 5192 1071 373 10 8069 1982 6153 308 
361 941 947 8970 1450 340 8552 432 846 
947 1054 846 340 308 1286 1410 308 833 
936 936 820 308 7775 1362 11944 5706 341 
846 2266 340 1453 12262 9267 941 4110 1054 
1058 1828 4194 4245 5891 370 2799 1059 7844 
66 9344 949 1052 368 3079 8548 1672 403 
4390 6006 4770 2360 338 369 8606 958 10199 
338 1579 5 4986 950 4456 368 6145 5021 
10696 338 1066 1979 7194 1565 401 955 852 
6767 2955 9203 9216 8034 2005 1765 100 7940 
4242 279 9180 4612 964 949 1142 11364 5656 
6476 3004 1836 5861 5802 3293 4347 1597 8665 
2817 10629 8959 1541 4555 8151 7687 2678 8286 
4232 1023 2069 2798 7311 2566 4476 8123 4258 
1134 3180 6095 5598 8293 34 7437 2058 2100 
1595 3106 5261 2319 4109 5448 3267 8199 3074 
1724 4387 1067 7381 11090 7614 4829 5125 3044 
6446 2046 1460 8292 8725 2468 5636 9767 3452 
7787 7379 6001 9809 7682 7625 7756 7508 11148 
4022 2414 9201 1379 3010 1738 1533 7772 7567 
9130 1738 2468 7424 184 9370 7557 4155 3562 
5263 11590 8012 2798 9158 4797 1967 7516 7711 
4335 275 9859 334 2628 8879 6534 4914 334 
8437 1879 1843 10050 4576 1101 1782 3325 3258 
7540 242 7311 1731 243 1568 1528 928 5453 
7703 4621 4336 2664 1673 7396 1299 7340 8123 
9960 3077 2105 8079 1904 9190 218 8337 184 
2387 1468 6267 1226 2068 10373 7531 5007 4331 
3294 3898 5918 10077 1229 11814 1602 1840 3220 
7940 8773 7379 3220 3225 7613 8661 8121 3019 
9473 7684 2289 9281 4101 7658 1834 8230 9148 
2259 9360 2400 5235 7826 2954 9833 7434 2877 
4123 7655 3736 6733 1804 3798 4971 434 189 
8249 11 4459 7867 5744 3195 368 7714 5574 
6127 4338 369 3735 337 3164 6108 9237 3521 
11906 3572 3200 824 1013 366 11865 7505 303 
4904 3369 8718 946 362 10524 131 8157 6063 
940 4672 1322 1718 4892 337 824 336 367 
944 9308 5461 301 828 1171 397 303 334 
938 365 943 924 4794 5026 9940 334 1168 
5350 1827 6159 5025 831 330 3285 4520 3285 
3503 1142 9061 2316 3500 2761 946 397 368 
8706 950 367 432 4038 1053 8249 962 9983 
8595 431 432 2051 2447 4473 1969 368 8437 
1693 952 368 432 3964 11034 9523 3040 12742 
8154 10519 640 7756 731 10461 9359 4335 7311 
821 2645 815 7684 7624 492 8827 124 1733 
815 3466 978 402 1065 4311 591 550 463 
370 550 552 1234 821 1237 432 4914 429 
6106 699 521 1448 432 7831 10051 5742 581 
983 2873 4187 5695 5564 2477 10477 4814 6799 
3429 550 522 8800 1211 4682 10471 8590 521 
894 437 463 2318 8293 2758 1220 2941 9041 
5073 7651 900 2718 3794 2363 5887 5862 10373 
821 834 463 847 432 2155 6322 404 7779 
5365 1022 9376 493 8365 3847 4325 9104 2330 
338 1066 950 964 4325 855 818 1050 4454 
5695 370 1058 369 1064 958 2420 462 2472 
401 827 401 956 5584 1055 1055 8022 4296 
400 1050 189 430 11561 368 462 818 399 
423 455 4589 455 455 950 952 827 400 
461 8108 3642 732 7934 520 462 847 215 
8633 1084 3970 2319 1812 8122 9177 7452 6984 
2605 3104 1028 996 4018 8980 7394 8105 7434 
4993 4520 4025 2872 2162 5670 8875 8149 1785 
11548 8268 6016 7332 7379 8983 1146 1346 9447 
2736 7461 4358 8256 8040 5784 7800 520 4530 
3113 6159 7195 10427 5792 3327 1362 1933 11892 
4660 7981 3286 1015 4011 8306 7563 5127 5192 
9207 5484 1261 8452 5487 7110 6393 12128 2144 
1960 5702 7311 7392 5481 6769 3475 5005 1999 
9278 1293 614 1319 4335 1994 9960 2352 7162 
8180 2604 2185 4008 1655 5586 8312 2503 2434 
3316 7503 4525 8702 2603 2194 8225 2588 2602 
1673 8336 2413 1725 8788 7957 3490 2617 11537 
7608 3395 2603 4115 2413 5686 3287 9183 5864 
2606 8312 213 2605 3575 6831 3833 3199 2251 
6955 3150 1537 2236 2608 4384 5590 8556 1021 
4608 2145 2365 8889 2372 2602 2602 2801 7421 
2599 7323 3932 1664 4005 7340 2653 5674 7228 
2601 2610 11184 2610 2603 1456 1456 7905 2372 
1909 2358 5456 5788 4672 9039 8546 3866 2288 
2434 7385 5010 2784 3033 4312 5231 5892 2136 
818 2423 2654 9759 2899 8904 11325 12200 8414 
7168 7361 8510 1293 7776 1360 5649 2413 7751 
4915 2635 2609 2603 2609 11180 2369 8795 2608 
4372 9918 9499 9896 2360 2153 2151 2154 2419 
2370 2606 2649 2369 7252 2661 2411 3054 2365 
2074 5807 2361 3179 7519 760 2419 2411 2360 
2371 2600 2411 2602 2370 8288 2835 1735 2434 
2678 2835 2835 3894 2321 4915 7901 7387 2670 
2365 5935 2670 7813 2364 2834 2829 2434 2834 
2831 2606 9918 1150 9895 2670 2365 2145 2829 
2369 2364 2600 2369 2596 4101 2605 2605 2154 
2154 1921 2145 2364 2155 2145 2364 2364 2368 
2368 11234 11021 791 2145 2363 1107 8265 7483 
789 8226 4519 672 8108 1904 2214 4469 3336 
7333 3487 1922 2586 7425 10535 8475 5963 3175 
3421 7583 1217 2484 1921 2399 1684 2145 2145 
1303 2145 2155 10472 1456 2698 10219 5792 1921 
3628 6254 4083 1507 1683 4462 1908 1921 1921 
610 7390 1683 1020 1683 1921 1463 1249 1685 
7763 9760 1249 4344 1817 1499 3480 6489 841 
9490 9127 4296 1283 1249 7824 3111 1456 1147 
1459 1675 1248 1020 35 7445 8773 12721 7709 
8329 7684 6128 1251 1085 4313 7011 1012 788 
2061 788 3667 277 5243 841 1019 3950 1020 
6105 9018 4337 2357 7221 5959 5999 7367 906 
2491 10941 3370 8362 2316 992 1765 1579 4556 
9401 1996 10176 3788 5440 2316 5243 7794 3885 
2414 836 3608 5581 4737 7333 5726 7528 1240 
124 6115 1223 1796 2496 2519 10062 3799 4759 
1098 992 9416 4514 5184 6101 1630 3072 6161 
8035 4395 1436 2203 7437 1445 1766 7711 6101 
8022 8122 7591 3387 2938 2936 2871 2713 2185 
4012 6588 759 4323 12863 8427 5857 7164 8660 
983 2160 1739 1750 4840 4845 4888 642 11103 
2742 2026 7592 8460 2948 642 3608 670 3798 
3098 1991 561 4018 612 7983 3466 6679 7472 